Variables= X Y Z U1 U2 U3 index 
zone T=" PLATE ALL " 
   1.000000E+01   7.000000E+01   0.000000E+00  -3.652847E-03  -7.218456E-02   1.413392E-18 0 
   1.939340E+01   6.060660E+01   0.000000E+00  -4.275026E-03  -6.777013E-02   1.338578E-18 1 
   4.060660E+01   6.060660E+01   0.000000E+00   4.275026E-03  -6.777013E-02   7.403821E-19 2 
   5.000000E+01   7.000000E+01   0.000000E+00   3.652847E-03  -7.218456E-02   7.402233E-19 3 
   4.060660E+01   3.939340E+01   0.000000E+00   4.275026E-03  -3.222987E-02  -1.520624E-19 4 
   5.000000E+01   3.000000E+01   0.000000E+00   3.652847E-03  -2.781543E-02  -4.789502E-19 5 
   2.292893E+01   5.707107E+01   0.000000E+00  -6.966352E-03  -7.065092E-02   1.182196E-18 6 
   3.707107E+01   5.707107E+01   0.000000E+00   6.966353E-03  -7.065092E-02   7.005775E-19 7 
   3.707107E+01   4.292893E+01   0.000000E+00   6.966353E-03  -2.934908E-02  -9.308309E-20 8 
   1.000000E+01   3.000000E+01   0.000000E+00  -3.652847E-03  -2.781543E-02   4.881663E-19 9 
   1.939340E+01   3.939340E+01   0.000000E+00  -4.275026E-03  -3.222987E-02   2.531964E-19 10 
   2.292893E+01   4.292893E+01   0.000000E+00  -6.966352E-03  -2.934908E-02   2.746659E-19 11 
   6.000000E+01   7.000000E+01   0.000000E+00   5.956037E-03  -6.902515E-02   5.063767E-19 12 
   6.000000E+01   3.000000E+01   0.000000E+00   5.956037E-03  -3.097485E-02  -5.976890E-19 13 
   0.000000E+00   7.000000E+01   0.000000E+00  -5.956037E-03  -6.902515E-02   8.064158E-19 14 
   1.000000E+01   1.000000E+02   0.000000E+00  -6.413038E-35  -1.000000E-01   0.000000E+00 15 
   0.000000E+00   1.000000E+02   0.000000E+00  -0.000000E+00  -1.000000E-01  -0.000000E+00 16 
   0.000000E+00   3.000000E+01   0.000000E+00  -5.956037E-03  -3.097485E-02   8.181152E-19 17 
   5.000000E+01   0.000000E+00   0.000000E+00   6.413038E-35  -2.415125E-34   0.000000E+00 18 
   6.000000E+01   0.000000E+00   0.000000E+00   0.000000E+00  -0.000000E+00  -0.000000E+00 19 
   5.000000E+01   1.000000E+02   0.000000E+00  -3.699158E-35  -1.000000E-01   0.000000E+00 20 
   1.000000E+01   0.000000E+00   0.000000E+00   3.699158E-35  -1.770692E-34   0.000000E+00 21 
   0.000000E+00   0.000000E+00   0.000000E+00  -0.000000E+00  -0.000000E+00  -0.000000E+00 22 
   6.000000E+01   1.000000E+02   0.000000E+00   0.000000E+00  -1.000000E-01   0.000000E+00 23 
   1.190800E+01   6.809200E+01   0.000000E+00  -3.670348E-03  -7.094245E-02   1.471473E-18 24 
   1.353887E+01   6.646114E+01   0.000000E+00  -3.690748E-03  -6.996281E-02   1.462343E-18 25 
   1.493285E+01   6.506715E+01   0.000000E+00  -3.735777E-03  -6.918671E-02   1.396999E-18 26 
   1.612436E+01   6.387564E+01   0.000000E+00  -3.790146E-03  -6.861175E-02   1.375429E-18 27 
   1.714281E+01   6.285719E+01   0.000000E+00  -3.873440E-03  -6.819825E-02   1.400395E-18 28 
   1.801332E+01   6.198668E+01   0.000000E+00  -3.978650E-03  -6.793787E-02   1.352805E-18 29 
   1.875740E+01   6.124260E+01   0.000000E+00  -4.114469E-03  -6.779872E-02   1.333107E-18 30 
   2.048410E+01   6.159516E+01   0.000000E+00  -3.223402E-03  -7.012711E-02   1.293490E-18 31 
   2.166645E+01   6.247205E+01   0.000000E+00  -2.334882E-03  -7.236265E-02   1.258830E-18 32 
   2.292905E+01   6.322882E+01   0.000000E+00  -1.621331E-03  -7.440546E-02   1.245561E-18 33 
   2.425975E+01   6.385819E+01   0.000000E+00  -1.073842E-03  -7.618386E-02   1.222192E-18 34 
   2.564573E+01   6.435410E+01   0.000000E+00  -6.715920E-04  -7.763395E-02   1.182802E-18 35 
   2.707364E+01   6.471178E+01   0.000000E+00  -3.826133E-04  -7.870658E-02   1.163891E-18 36 
   2.852974E+01   6.492777E+01   0.000000E+00  -1.717013E-04  -7.936399E-02   1.147558E-18 37 
   3.000000E+01   6.500000E+01   0.000000E+00  -6.727668E-11  -7.958607E-02   1.119683E-18 38 
   3.147026E+01   6.492777E+01   0.000000E+00   1.717015E-04  -7.936399E-02   1.080687E-18 39 
   3.292635E+01   6.471178E+01   0.000000E+00   3.826129E-04  -7.870658E-02   1.041773E-18 40 
   3.435427E+01   6.435410E+01   0.000000E+00   6.715920E-04  -7.763395E-02   9.951776E-19 41 
   3.574025E+01   6.385819E+01   0.000000E+00   1.073842E-03  -7.618386E-02   9.484204E-19 42 
   3.707095E+01   6.322882E+01   0.000000E+00   1.621331E-03  -7.440546E-02   9.095112E-19 43 
   3.833355E+01   6.247205E+01   0.000000E+00   2.334882E-03  -7.236265E-02   8.609257E-19 44 
   3.951590E+01   6.159516E+01   0.000000E+00   3.223402E-03  -7.012711E-02   8.053874E-19 45 
   4.124260E+01   6.124260E+01   0.000000E+00   4.114470E-03  -6.779871E-02   7.313986E-19 46 
   4.198668E+01   6.198668E+01   0.000000E+00   3.978650E-03  -6.793786E-02   7.031424E-19 47 
   4.285719E+01   6.285719E+01   0.000000E+00   3.873439E-03  -6.819825E-02   6.855229E-19 48 
   4.387564E+01   6.387564E+01   0.000000E+00   3.790146E-03  -6.861175E-02   6.883140E-19 49 
   4.506715E+01   6.506715E+01   0.000000E+00   3.735777E-03  -6.918671E-02   7.779919E-19 50 
   4.646114E+01   6.646114E+01   0.000000E+00   3.690748E-03  -6.996281E-02   8.606464E-19 51 
   4.809200E+01   6.809200E+01   0.000000E+00   3.670348E-03  -7.094245E-02   8.531741E-19 52 
   4.750000E+01   7.000000E+01   0.000000E+00   3.031536E-03  -7.316903E-02   8.755224E-19 53 
   4.500000E+01   7.000000E+01   0.000000E+00   2.381070E-03  -7.432940E-02   9.040597E-19 54 
   4.250000E+01   7.000000E+01   0.000000E+00   1.761453E-03  -7.563919E-02   8.680495E-19 55 
   4.000000E+01   7.000000E+01   0.000000E+00   1.187617E-03  -7.710043E-02   8.933394E-19 56 
   3.750000E+01   7.000000E+01   0.000000E+00   7.217572E-04  -7.856239E-02   9.489290E-19 57 
   3.500000E+01   7.000000E+01   0.000000E+00   3.750742E-04  -7.987729E-02   9.923865E-19 58 
   3.250000E+01   7.000000E+01   0.000000E+00   1.521836E-04  -8.077655E-02   1.025946E-18 59 
   3.000000E+01   7.000000E+01   0.000000E+00   9.599268E-12  -8.111455E-02   1.085436E-18 60 
   2.750000E+01   7.000000E+01   0.000000E+00  -1.521836E-04  -8.077655E-02   1.176195E-18 61 
   2.500000E+01   7.000000E+01   0.000000E+00  -3.750742E-04  -7.987729E-02   1.256463E-18 62 
   2.250000E+01   7.000000E+01   0.000000E+00  -7.217574E-04  -7.856239E-02   1.354192E-18 63 
   2.000000E+01   7.000000E+01   0.000000E+00  -1.187617E-03  -7.710043E-02   1.436680E-18 64 
   1.750000E+01   7.000000E+01   0.000000E+00  -1.761453E-03  -7.563919E-02   1.432950E-18 65 
   1.500000E+01   7.000000E+01   0.000000E+00  -2.381070E-03  -7.432940E-02   1.470976E-18 66 
   1.250000E+01   7.000000E+01   0.000000E+00  -3.031536E-03  -7.316903E-02   1.457118E-18 67 
   4.124260E+01   3.875740E+01   0.000000E+00   4.114470E-03  -3.220129E-02  -1.310515E-19 68 
   4.198668E+01   3.801332E+01   0.000000E+00   3.978651E-03  -3.206214E-02  -1.202552E-19 69 
   4.285719E+01   3.714281E+01   0.000000E+00   3.873439E-03  -3.180175E-02  -1.393406E-19 70 
   4.387564E+01   3.612436E+01   0.000000E+00   3.790146E-03  -3.138825E-02  -1.515867E-19 71 
   4.506715E+01   3.493285E+01   0.000000E+00   3.735778E-03  -3.081329E-02  -1.568784E-19 72 
   4.646114E+01   3.353886E+01   0.000000E+00   3.690748E-03  -3.003719E-02  -1.473034E-19 73 
   4.809200E+01   3.190800E+01   0.000000E+00   3.670348E-03  -2.905756E-02  -2.185163E-19 74 
   5.000000E+01   3.250000E+01   0.000000E+00   4.375549E-03  -3.045100E-02  -2.563959E-19 75 
   5.000000E+01   3.500000E+01   0.000000E+00   5.304453E-03  -3.316155E-02  -2.901679E-19 76 
   5.000000E+01   3.750000E+01   0.000000E+00   6.482376E-03  -3.596149E-02  -2.586132E-19 77 
   5.000000E+01   4.000000E+01   0.000000E+00   7.847836E-03  -3.880633E-02  -3.380665E-19 78 
   5.000000E+01   4.250000E+01   0.000000E+00   9.309293E-03  -4.166570E-02  -3.927807E-19 79 
   5.000000E+01   4.500000E+01   0.000000E+00   1.062822E-02  -4.448742E-02  -3.051553E-19 80 
   5.000000E+01   4.750000E+01   0.000000E+00   1.156969E-02  -4.726157E-02  -2.462846E-19 81 
   5.000000E+01   5.000000E+01   0.000000E+00   1.190147E-02  -5.000000E-02  -2.843355E-19 82 
   5.000000E+01   5.250000E+01   0.000000E+00   1.156969E-02  -5.273842E-02  -3.005617E-19 83 
   5.000000E+01   5.500000E+01   0.000000E+00   1.062822E-02  -5.551258E-02  -1.522318E-19 84 
   5.000000E+01   5.750000E+01   0.000000E+00   9.309293E-03  -5.833430E-02  -1.989176E-20 85 
   5.000000E+01   6.000000E+01   0.000000E+00   7.847836E-03  -6.119367E-02   9.244176E-20 86 
   5.000000E+01   6.250000E+01   0.000000E+00   6.482376E-03  -6.403852E-02   2.456428E-19 87 
   5.000000E+01   6.500000E+01   0.000000E+00   5.304453E-03  -6.683845E-02   6.021734E-19 88 
   5.000000E+01   6.750000E+01   0.000000E+00   4.375549E-03  -6.954900E-02   7.823257E-19 89 
   4.159516E+01   5.951590E+01   0.000000E+00   5.453672E-03  -6.536850E-02   6.235613E-19 90 
   4.247205E+01   5.833355E+01   0.000000E+00   6.696268E-03  -6.298444E-02   4.341776E-19 91 
   4.322882E+01   5.707095E+01   0.000000E+00   7.935951E-03  -6.064994E-02   3.118082E-19 92 
   4.385819E+01   5.574025E+01   0.000000E+00   9.086355E-03  -5.839128E-02   2.125465E-19 93 
   4.435411E+01   5.435427E+01   0.000000E+00   1.007563E-02  -5.620920E-02   6.324224E-20 94 
   4.471178E+01   5.292635E+01   0.000000E+00   1.083189E-02  -5.409711E-02  -5.781949E-20 95 
   4.492777E+01   5.147026E+01   0.000000E+00   1.130909E-02  -5.203506E-02  -6.922837E-20 96 
   4.500000E+01   5.000000E+01   0.000000E+00   1.147018E-02  -5.000000E-02  -1.340672E-19 97 
   4.492777E+01   4.852974E+01   0.000000E+00   1.130909E-02  -4.796494E-02  -2.194585E-19 98 
   4.471178E+01   4.707365E+01   0.000000E+00   1.083189E-02  -4.590289E-02  -2.087254E-19 99 
   4.435411E+01   4.564573E+01   0.000000E+00   1.007563E-02  -4.379080E-02  -1.926996E-19 100 
   4.385819E+01   4.425975E+01   0.000000E+00   9.086355E-03  -4.160872E-02  -1.511690E-19 101 
   4.322882E+01   4.292905E+01   0.000000E+00   7.935951E-03  -3.935007E-02  -1.533783E-19 102 
   4.247205E+01   4.166645E+01   0.000000E+00   6.696268E-03  -3.701556E-02  -1.686790E-19 103 
   4.159516E+01   4.048410E+01   0.000000E+00   5.453672E-03  -3.463151E-02  -1.670193E-19 104 
   1.983188E+01   6.016812E+01   0.000000E+00  -4.421075E-03  -6.780683E-02   1.333561E-18 105 
   2.022575E+01   5.977425E+01   0.000000E+00  -4.579403E-03  -6.788827E-02   1.310885E-18 106 
   2.057954E+01   5.942046E+01   0.000000E+00  -4.750778E-03  -6.800789E-02   1.301872E-18 107 
   2.089734E+01   5.910266E+01   0.000000E+00  -4.930610E-03  -6.815962E-02   1.297012E-18 108 
   2.118281E+01   5.881719E+01   0.000000E+00  -5.117502E-03  -6.833681E-02   1.288596E-18 109 
   2.143924E+01   5.856076E+01   0.000000E+00  -5.307653E-03  -6.853384E-02   1.272236E-18 110 
   2.166957E+01   5.833043E+01   0.000000E+00  -5.498997E-03  -6.874496E-02   1.258203E-18 111 
   2.187647E+01   5.812353E+01   0.000000E+00  -5.688644E-03  -6.896537E-02   1.247733E-18 112 
   2.206232E+01   5.793768E+01   0.000000E+00  -5.874700E-03  -6.919051E-02   1.235365E-18 113 
   2.222927E+01   5.777073E+01   0.000000E+00  -6.055209E-03  -6.941663E-02   1.227480E-18 114 
   2.237922E+01   5.762078E+01   0.000000E+00  -6.228837E-03  -6.964046E-02   1.217025E-18 115 
   2.251393E+01   5.748608E+01   0.000000E+00  -6.394468E-03  -6.985937E-02   1.207773E-18 116 
   2.263492E+01   5.736508E+01   0.000000E+00  -6.551386E-03  -7.007125E-02   1.199185E-18 117 
   2.274361E+01   5.725639E+01   0.000000E+00  -6.699114E-03  -7.027451E-02   1.192966E-18 118 
   2.284124E+01   5.715876E+01   0.000000E+00  -6.837445E-03  -7.046799E-02   1.187842E-18 119 
   2.365607E+01   5.773011E+01   0.000000E+00  -6.191007E-03  -7.253463E-02   1.206032E-18 120 
   2.444430E+01   5.831470E+01   0.000000E+00  -5.373654E-03  -7.419746E-02   1.202067E-18 121 
   2.528603E+01   5.881921E+01   0.000000E+00  -4.522961E-03  -7.562615E-02   1.171572E-18 122 
   2.617317E+01   5.923880E+01   0.000000E+00  -3.646472E-03  -7.680972E-02   1.141301E-18 123 
   2.709715E+01   5.956940E+01   0.000000E+00  -2.750644E-03  -7.773932E-02   1.129948E-18 124 
   2.804910E+01   5.980785E+01   0.000000E+00  -1.841073E-03  -7.840815E-02   1.115422E-18 125 
   2.901983E+01   5.995185E+01   0.000000E+00  -9.226874E-04  -7.881138E-02   1.110378E-18 126 
   3.000000E+01   6.000000E+01   0.000000E+00  -3.972854E-10  -7.894611E-02   1.096835E-18 127 
   3.098017E+01   5.995185E+01   0.000000E+00   9.226875E-04  -7.881138E-02   1.085631E-18 128 
   3.195090E+01   5.980785E+01   0.000000E+00   1.841073E-03  -7.840815E-02   1.073870E-18 129 
   3.290285E+01   5.956940E+01   0.000000E+00   2.750644E-03  -7.773932E-02   1.040933E-18 130 
   3.382684E+01   5.923880E+01   0.000000E+00   3.646472E-03  -7.680972E-02   1.006028E-18 131 
   3.471397E+01   5.881921E+01   0.000000E+00   4.522962E-03  -7.562615E-02   9.613672E-19 132 
   3.555570E+01   5.831470E+01   0.000000E+00   5.373654E-03  -7.419746E-02   9.029100E-19 133 
   3.634393E+01   5.773011E+01   0.000000E+00   6.191008E-03  -7.253463E-02   8.228069E-19 134 
   3.715876E+01   5.715876E+01   0.000000E+00   6.837446E-03  -7.046799E-02   7.006131E-19 135 
   3.725639E+01   5.725639E+01   0.000000E+00   6.699114E-03  -7.027451E-02   7.016389E-19 136 
   3.736508E+01   5.736508E+01   0.000000E+00   6.551387E-03  -7.007125E-02   7.016666E-19 137 
   3.748608E+01   5.748608E+01   0.000000E+00   6.394468E-03  -6.985937E-02   7.002576E-19 138 
   3.762078E+01   5.762078E+01   0.000000E+00   6.228838E-03  -6.964046E-02   7.021808E-19 139 
   3.777073E+01   5.777073E+01   0.000000E+00   6.055209E-03  -6.941664E-02   7.030296E-19 140 
   3.793768E+01   5.793768E+01   0.000000E+00   5.874700E-03  -6.919051E-02   7.013059E-19 141 
   3.812353E+01   5.812353E+01   0.000000E+00   5.688644E-03  -6.896537E-02   6.990443E-19 142 
   3.833043E+01   5.833043E+01   0.000000E+00   5.498997E-03  -6.874496E-02   7.016361E-19 143 
   3.856076E+01   5.856076E+01   0.000000E+00   5.307653E-03  -6.853384E-02   7.053323E-19 144 
   3.881719E+01   5.881719E+01   0.000000E+00   5.117501E-03  -6.833681E-02   7.091654E-19 145 
   3.910266E+01   5.910266E+01   0.000000E+00   4.930610E-03  -6.815962E-02   7.149001E-19 146 
   3.942046E+01   5.942046E+01   0.000000E+00   4.750778E-03  -6.800789E-02   7.179894E-19 147 
   3.977425E+01   5.977425E+01   0.000000E+00   4.579403E-03  -6.788827E-02   7.284938E-19 148 
   4.016812E+01   6.016812E+01   0.000000E+00   4.421074E-03  -6.780683E-02   7.386859E-19 149 
   3.715876E+01   4.284124E+01   0.000000E+00   6.837446E-03  -2.953201E-02  -9.206819E-20 150 
   3.725639E+01   4.274361E+01   0.000000E+00   6.699114E-03  -2.972549E-02  -9.049746E-20 151 
   3.736508E+01   4.263492E+01   0.000000E+00   6.551387E-03  -2.992875E-02  -8.803411E-20 152 
   3.748608E+01   4.251392E+01   0.000000E+00   6.394468E-03  -3.014063E-02  -8.991928E-20 153 
   3.762078E+01   4.237922E+01   0.000000E+00   6.228838E-03  -3.035954E-02  -9.164465E-20 154 
   3.777073E+01   4.222927E+01   0.000000E+00   6.055209E-03  -3.058336E-02  -9.058377E-20 155 
   3.793768E+01   4.206232E+01   0.000000E+00   5.874700E-03  -3.080949E-02  -9.188986E-20 156 
   3.812353E+01   4.187647E+01   0.000000E+00   5.688644E-03  -3.103463E-02  -9.621687E-20 157 
   3.833043E+01   4.166957E+01   0.000000E+00   5.498997E-03  -3.125504E-02  -1.094186E-19 158 
   3.856076E+01   4.143924E+01   0.000000E+00   5.307653E-03  -3.146616E-02  -1.210656E-19 159 
   3.881719E+01   4.118281E+01   0.000000E+00   5.117501E-03  -3.166319E-02  -1.294816E-19 160 
   3.910266E+01   4.089734E+01   0.000000E+00   4.930610E-03  -3.184038E-02  -1.368824E-19 161 
   3.942046E+01   4.057954E+01   0.000000E+00   4.750778E-03  -3.199211E-02  -1.347537E-19 162 
   3.977425E+01   4.022575E+01   0.000000E+00   4.579403E-03  -3.211173E-02  -1.421146E-19 163 
   4.016812E+01   3.983188E+01   0.000000E+00   4.421075E-03  -3.219317E-02  -1.450100E-19 164 
   3.773011E+01   5.634393E+01   0.000000E+00   7.689879E-03  -6.856195E-02   5.664872E-19 165 
   3.831470E+01   5.555570E+01   0.000000E+00   8.350832E-03  -6.628572E-02   4.642487E-19 166 
   3.881921E+01   5.471397E+01   0.000000E+00   8.937759E-03  -6.384262E-02   3.889659E-19 167 
   3.923880E+01   5.382684E+01   0.000000E+00   9.438955E-03  -6.125541E-02   2.814212E-19 168 
   3.956940E+01   5.290285E+01   0.000000E+00   9.843089E-03  -5.854924E-02   1.642855E-19 169 
   3.980785E+01   5.195090E+01   0.000000E+00   1.014002E-02  -5.575150E-02   8.965489E-20 170 
   3.995185E+01   5.098017E+01   0.000000E+00   1.032166E-02  -5.289150E-02   1.092420E-20 171 
   4.000000E+01   5.000000E+01   0.000000E+00   1.038281E-02  -5.000000E-02  -8.480300E-20 172 
   3.995185E+01   4.901983E+01   0.000000E+00   1.032166E-02  -4.710850E-02  -1.510009E-19 173 
   3.980785E+01   4.804910E+01   0.000000E+00   1.014002E-02  -4.424850E-02  -1.716137E-19 174 
   3.956940E+01   4.709715E+01   0.000000E+00   9.843089E-03  -4.145076E-02  -1.946938E-19 175 
   3.923880E+01   4.617316E+01   0.000000E+00   9.438955E-03  -3.874459E-02  -1.763966E-19 176 
   3.881921E+01   4.528603E+01   0.000000E+00   8.937759E-03  -3.615738E-02  -1.369500E-19 177 
   3.831470E+01   4.444430E+01   0.000000E+00   8.350832E-03  -3.371428E-02  -9.541324E-20 178 
   3.773011E+01   4.365607E+01   0.000000E+00   7.689879E-03  -3.143805E-02  -8.738836E-20 179 
   1.000000E+01   6.750000E+01   0.000000E+00  -4.375549E-03  -6.954900E-02   1.463326E-18 180 
   1.000000E+01   6.500000E+01   0.000000E+00  -5.304453E-03  -6.683845E-02   1.435934E-18 181 
   1.000000E+01   6.250000E+01   0.000000E+00  -6.482376E-03  -6.403852E-02   1.421617E-18 182 
   1.000000E+01   6.000000E+01   0.000000E+00  -7.847836E-03  -6.119367E-02   1.426386E-18 183 
   1.000000E+01   5.750000E+01   0.000000E+00  -9.309293E-03  -5.833430E-02   1.490818E-18 184 
   1.000000E+01   5.500000E+01   0.000000E+00  -1.062822E-02  -5.551258E-02   1.436634E-18 185 
   1.000000E+01   5.250000E+01   0.000000E+00  -1.156969E-02  -5.273842E-02   1.232014E-18 186 
   1.000000E+01   5.000000E+01   0.000000E+00  -1.190147E-02  -5.000000E-02   9.612702E-19 187 
   1.000000E+01   4.750000E+01   0.000000E+00  -1.156969E-02  -4.726157E-02   6.569065E-19 188 
   1.000000E+01   4.500000E+01   0.000000E+00  -1.062822E-02  -4.448742E-02   3.597719E-19 189 
   1.000000E+01   4.250000E+01   0.000000E+00  -9.309293E-03  -4.166570E-02   1.801798E-19 190 
   1.000000E+01   4.000000E+01   0.000000E+00  -7.847836E-03  -3.880633E-02   1.095616E-19 191 
   1.000000E+01   3.750000E+01   0.000000E+00  -6.482376E-03  -3.596149E-02   1.328443E-19 192 
   1.000000E+01   3.500000E+01   0.000000E+00  -5.304453E-03  -3.316155E-02   7.862924E-20 193 
   1.000000E+01   3.250000E+01   0.000000E+00  -4.375549E-03  -3.045100E-02   2.459327E-19 194 
   1.190800E+01   3.190800E+01   0.000000E+00  -3.670349E-03  -2.905756E-02   2.986426E-19 195 
   1.353887E+01   3.353886E+01   0.000000E+00  -3.690748E-03  -3.003719E-02   1.750082E-19 196 
   1.493285E+01   3.493285E+01   0.000000E+00  -3.735778E-03  -3.081329E-02   1.684512E-19 197 
   1.612436E+01   3.612436E+01   0.000000E+00  -3.790146E-03  -3.138825E-02   1.433389E-19 198 
   1.714281E+01   3.714281E+01   0.000000E+00  -3.873440E-03  -3.180175E-02   1.510650E-19 199 
   1.801332E+01   3.801332E+01   0.000000E+00  -3.978650E-03  -3.206214E-02   1.669692E-19 200 
   1.875740E+01   3.875740E+01   0.000000E+00  -4.114469E-03  -3.220129E-02   2.110852E-19 201 
   1.840484E+01   4.048410E+01   0.000000E+00  -5.453672E-03  -3.463151E-02   2.864247E-19 202 
   1.752796E+01   4.166645E+01   0.000000E+00  -6.696267E-03  -3.701556E-02   2.896988E-19 203 
   1.677118E+01   4.292905E+01   0.000000E+00  -7.935950E-03  -3.935007E-02   2.882929E-19 204 
   1.614181E+01   4.425975E+01   0.000000E+00  -9.086355E-03  -4.160872E-02   3.447880E-19 205 
   1.564590E+01   4.564573E+01   0.000000E+00  -1.007563E-02  -4.379079E-02   5.006582E-19 206 
   1.528822E+01   4.707365E+01   0.000000E+00  -1.083189E-02  -4.590289E-02   6.266167E-19 207 
   1.507223E+01   4.852974E+01   0.000000E+00  -1.130909E-02  -4.796494E-02   7.237466E-19 208 
   1.500000E+01   5.000000E+01   0.000000E+00  -1.147018E-02  -5.000000E-02   8.333028E-19 209 
   1.507223E+01   5.147026E+01   0.000000E+00  -1.130909E-02  -5.203506E-02   9.860917E-19 210 
   1.528822E+01   5.292635E+01   0.000000E+00  -1.083189E-02  -5.409711E-02   1.104096E-18 211 
   1.564590E+01   5.435427E+01   0.000000E+00  -1.007563E-02  -5.620920E-02   1.170293E-18 212 
   1.614181E+01   5.574025E+01   0.000000E+00  -9.086355E-03  -5.839128E-02   1.219265E-18 213 
   1.677118E+01   5.707095E+01   0.000000E+00  -7.935950E-03  -6.064994E-02   1.277362E-18 214 
   1.752796E+01   5.833355E+01   0.000000E+00  -6.696267E-03  -6.298444E-02   1.325596E-18 215 
   1.840484E+01   5.951590E+01   0.000000E+00  -5.453672E-03  -6.536850E-02   1.342341E-18 216 
   1.983188E+01   3.983188E+01   0.000000E+00  -4.421075E-03  -3.219317E-02   2.787079E-19 217 
   2.022575E+01   4.022575E+01   0.000000E+00  -4.579403E-03  -3.211173E-02   2.802057E-19 218 
   2.057954E+01   4.057954E+01   0.000000E+00  -4.750778E-03  -3.199212E-02   2.887515E-19 219 
   2.089734E+01   4.089734E+01   0.000000E+00  -4.930610E-03  -3.184038E-02   2.843738E-19 220 
   2.118281E+01   4.118281E+01   0.000000E+00  -5.117502E-03  -3.166319E-02   2.851310E-19 221 
   2.143924E+01   4.143924E+01   0.000000E+00  -5.307653E-03  -3.146616E-02   2.859785E-19 222 
   2.166957E+01   4.166957E+01   0.000000E+00  -5.498997E-03  -3.125504E-02   2.818103E-19 223 
   2.187647E+01   4.187647E+01   0.000000E+00  -5.688644E-03  -3.103463E-02   2.818181E-19 224 
   2.206232E+01   4.206232E+01   0.000000E+00  -5.874700E-03  -3.080949E-02   2.796055E-19 225 
   2.222927E+01   4.222927E+01   0.000000E+00  -6.055209E-03  -3.058337E-02   2.792707E-19 226 
   2.237922E+01   4.237922E+01   0.000000E+00  -6.228837E-03  -3.035954E-02   2.781398E-19 227 
   2.251393E+01   4.251392E+01   0.000000E+00  -6.394468E-03  -3.014063E-02   2.782875E-19 228 
   2.263492E+01   4.263492E+01   0.000000E+00  -6.551386E-03  -2.992875E-02   2.755393E-19 229 
   2.274361E+01   4.274361E+01   0.000000E+00  -6.699114E-03  -2.972549E-02   2.747972E-19 230 
   2.284124E+01   4.284124E+01   0.000000E+00  -6.837445E-03  -2.953201E-02   2.744847E-19 231 
   2.226990E+01   4.365607E+01   0.000000E+00  -7.689877E-03  -3.143805E-02   2.648597E-19 232 
   2.168530E+01   4.444430E+01   0.000000E+00  -8.350832E-03  -3.371428E-02   2.927144E-19 233 
   2.118079E+01   4.528603E+01   0.000000E+00  -8.937758E-03  -3.615738E-02   3.481514E-19 234 
   2.076120E+01   4.617316E+01   0.000000E+00  -9.438958E-03  -3.874459E-02   4.304254E-19 235 
   2.043060E+01   4.709715E+01   0.000000E+00  -9.843085E-03  -4.145075E-02   5.006769E-19 236 
   2.019215E+01   4.804910E+01   0.000000E+00  -1.014002E-02  -4.424850E-02   5.971955E-19 237 
   2.004815E+01   4.901983E+01   0.000000E+00  -1.032166E-02  -4.710850E-02   6.564067E-19 238 
   2.000000E+01   5.000000E+01   0.000000E+00  -1.038282E-02  -5.000000E-02   7.153799E-19 239 
   2.004815E+01   5.098017E+01   0.000000E+00  -1.032166E-02  -5.289150E-02   8.487052E-19 240 
   2.019215E+01   5.195090E+01   0.000000E+00  -1.014002E-02  -5.575150E-02   9.609098E-19 241 
   2.043060E+01   5.290285E+01   0.000000E+00  -9.843085E-03  -5.854924E-02   1.001958E-18 242 
   2.076120E+01   5.382684E+01   0.000000E+00  -9.438958E-03  -6.125541E-02   1.029912E-18 243 
   2.118079E+01   5.471397E+01   0.000000E+00  -8.937758E-03  -6.384262E-02   1.061952E-18 244 
   2.168530E+01   5.555570E+01   0.000000E+00  -8.350832E-03  -6.628572E-02   1.117594E-18 245 
   2.226990E+01   5.634393E+01   0.000000E+00  -7.689877E-03  -6.856196E-02   1.162063E-18 246 
   5.800000E+01   7.000000E+01   0.000000E+00   5.500435E-03  -6.960929E-02   5.463703E-19 247 
   5.600000E+01   7.000000E+01   0.000000E+00   5.068302E-03  -7.019813E-02   5.937195E-19 248 
   5.400000E+01   7.000000E+01   0.000000E+00   4.605952E-03  -7.082265E-02   6.470398E-19 249 
   5.200000E+01   7.000000E+01   0.000000E+00   4.147616E-03  -7.146890E-02   6.955635E-19 250 
   5.200000E+01   3.000000E+01   0.000000E+00   4.147616E-03  -2.853110E-02  -5.020594E-19 251 
   5.400000E+01   3.000000E+01   0.000000E+00   4.605952E-03  -2.917735E-02  -5.540429E-19 252 
   5.600000E+01   3.000000E+01   0.000000E+00   5.068302E-03  -2.980187E-02  -5.766139E-19 253 
   5.800000E+01   3.000000E+01   0.000000E+00   5.500435E-03  -3.039071E-02  -5.852898E-19 254 
   6.000000E+01   3.250000E+01   0.000000E+00   6.748029E-03  -3.382059E-02  -4.703548E-19 255 
   6.000000E+01   3.500000E+01   0.000000E+00   7.735659E-03  -3.663962E-02  -7.030449E-19 256 
   6.000000E+01   3.750000E+01   0.000000E+00   8.865161E-03  -3.935039E-02  -8.974770E-19 257 
   6.000000E+01   4.000000E+01   0.000000E+00   1.009841E-02  -4.190051E-02  -9.434049E-19 258 
   6.000000E+01   4.250000E+01   0.000000E+00   1.129262E-02  -4.422782E-02  -9.586312E-19 259 
   6.000000E+01   4.500000E+01   0.000000E+00   1.232372E-02  -4.632436E-02  -8.047123E-19 260 
   6.000000E+01   4.750000E+01   0.000000E+00   1.301120E-02  -4.821929E-02  -6.029402E-19 261 
   6.000000E+01   5.000000E+01   0.000000E+00   1.326329E-02  -5.000000E-02  -7.202351E-19 262 
   6.000000E+01   5.250000E+01   0.000000E+00   1.301120E-02  -5.178070E-02  -8.751257E-19 263 
   6.000000E+01   5.500000E+01   0.000000E+00   1.232372E-02  -5.367564E-02  -9.221614E-19 264 
   6.000000E+01   5.750000E+01   0.000000E+00   1.129262E-02  -5.577217E-02  -8.407665E-19 265 
   6.000000E+01   6.000000E+01   0.000000E+00   1.009841E-02  -5.809949E-02  -4.689303E-19 266 
   6.000000E+01   6.250000E+01   0.000000E+00   8.865161E-03  -6.064961E-02  -1.535661E-19 267 
   6.000000E+01   6.500000E+01   0.000000E+00   7.735659E-03  -6.336039E-02   9.501402E-20 268 
   6.000000E+01   6.750000E+01   0.000000E+00   6.748029E-03  -6.617941E-02   3.553761E-19 269 
   3.951590E+01   3.840484E+01   0.000000E+00   3.223402E-03  -2.987289E-02  -1.279584E-19 270 
   3.833355E+01   3.752795E+01   0.000000E+00   2.334882E-03  -2.763734E-02  -1.211323E-19 271 
   3.707095E+01   3.677118E+01   0.000000E+00   1.621331E-03  -2.559454E-02  -1.154308E-19 272 
   3.574025E+01   3.614181E+01   0.000000E+00   1.073841E-03  -2.381614E-02  -9.827658E-20 273 
   3.435427E+01   3.564589E+01   0.000000E+00   6.715914E-04  -2.236605E-02  -6.821943E-20 274 
   3.292635E+01   3.528822E+01   0.000000E+00   3.826126E-04  -2.129341E-02  -4.270720E-20 275 
   3.147026E+01   3.507223E+01   0.000000E+00   1.717015E-04  -2.063600E-02  -8.682081E-21 276 
   3.000000E+01   3.500000E+01   0.000000E+00  -6.727695E-11  -2.041393E-02   2.537585E-20 277 
   2.852974E+01   3.507223E+01   0.000000E+00  -1.717014E-04  -2.063600E-02   5.769859E-20 278 
   2.707364E+01   3.528822E+01   0.000000E+00  -3.826130E-04  -2.129341E-02   8.081703E-20 279 
   2.564573E+01   3.564589E+01   0.000000E+00  -6.715914E-04  -2.236605E-02   9.239289E-20 280 
   2.425975E+01   3.614181E+01   0.000000E+00  -1.073842E-03  -2.381614E-02   1.069068E-19 281 
   2.292905E+01   3.677118E+01   0.000000E+00  -1.621331E-03  -2.559454E-02   1.245746E-19 282 
   2.166645E+01   3.752795E+01   0.000000E+00  -2.334882E-03  -2.763734E-02   1.497815E-19 283 
   2.048410E+01   3.840484E+01   0.000000E+00  -3.223402E-03  -2.987289E-02   1.856580E-19 284 
   1.250000E+01   3.000000E+01   0.000000E+00  -3.031536E-03  -2.683097E-02   4.694609E-19 285 
   1.500000E+01   3.000000E+01   0.000000E+00  -2.381070E-03  -2.567060E-02   4.024457E-19 286 
   1.750000E+01   3.000000E+01   0.000000E+00  -1.761454E-03  -2.436081E-02   3.178086E-19 287 
   2.000000E+01   3.000000E+01   0.000000E+00  -1.187617E-03  -2.289957E-02   2.336245E-19 288 
   2.250000E+01   3.000000E+01   0.000000E+00  -7.217574E-04  -2.143761E-02   1.782287E-19 289 
   2.500000E+01   3.000000E+01   0.000000E+00  -3.750742E-04  -2.012271E-02   1.283689E-19 290 
   2.750000E+01   3.000000E+01   0.000000E+00  -1.521836E-04  -1.922345E-02   5.234888E-20 291 
   3.000000E+01   3.000000E+01   0.000000E+00   9.599280E-12  -1.888546E-02   1.534138E-21 292 
   3.250000E+01   3.000000E+01   0.000000E+00   1.521836E-04  -1.922345E-02  -5.848999E-20 293 
   3.500000E+01   3.000000E+01   0.000000E+00   3.750742E-04  -2.012271E-02  -1.121159E-19 294 
   3.750000E+01   3.000000E+01   0.000000E+00   7.217572E-04  -2.143761E-02  -1.565988E-19 295 
   4.000000E+01   3.000000E+01   0.000000E+00   1.187617E-03  -2.289957E-02  -2.356270E-19 296 
   4.250000E+01   3.000000E+01   0.000000E+00   1.761453E-03  -2.436081E-02  -3.379262E-19 297 
   4.500000E+01   3.000000E+01   0.000000E+00   2.381070E-03  -2.567060E-02  -3.425991E-19 298 
   4.750000E+01   3.000000E+01   0.000000E+00   3.031536E-03  -2.683097E-02  -3.750203E-19 299 
   2.000000E+00   7.000000E+01   0.000000E+00  -5.500435E-03  -6.960929E-02   9.523429E-19 300 
   4.000000E+00   7.000000E+01   0.000000E+00  -5.068302E-03  -7.019813E-02   1.137110E-18 301 
   6.000000E+00   7.000000E+01   0.000000E+00  -4.605952E-03  -7.082265E-02   1.260151E-18 302 
   8.000000E+00   7.000000E+01   0.000000E+00  -4.147616E-03  -7.146890E-02   1.354488E-18 303 
   1.000000E+01   7.200000E+01   0.000000E+00  -3.221247E-03  -7.422183E-02   1.342527E-18 304 
   1.000000E+01   7.400000E+01   0.000000E+00  -2.867657E-03  -7.623707E-02   1.254650E-18 305 
   1.000000E+01   7.600000E+01   0.000000E+00  -2.615929E-03  -7.818398E-02   1.127646E-18 306 
   1.000000E+01   7.800000E+01   0.000000E+00  -2.396331E-03  -8.013154E-02   9.889985E-19 307 
   1.000000E+01   8.000000E+01   0.000000E+00  -2.247090E-03  -8.200973E-02   8.863291E-19 308 
   1.000000E+01   8.200000E+01   0.000000E+00  -2.088269E-03  -8.391479E-02   7.489529E-19 309 
   1.000000E+01   8.400000E+01   0.000000E+00  -1.975241E-03  -8.574300E-02   6.135344E-19 310 
   1.000000E+01   8.600000E+01   0.000000E+00  -1.816737E-03  -8.762598E-02   5.484548E-19 311 
   1.000000E+01   8.800000E+01   0.000000E+00  -1.682711E-03  -8.941571E-02   4.456930E-19 312 